# vtk DataFile Version 3.0
Generated by Topo_C++
ASCII
DATASET UNSTRUCTURED_GRID
POINTS 30351 double
0 0 0
1.5 0 0
3 0 0
4.5 0 0
6 0 0
7.5 0 0
9 0 0
10.5 0 0
12 0 0
13.5 0 0
15 0 0
16.5 0 0
18 0 0
19.5 0 0
21 0 0
22.5 0 0
24 0 0
25.5 0 0
27 0 0
28.5 0 0
30 0 0
31.5 0 0
33 0 0
34.5 0 0
36 0 0
37.5 0 0
39 0 0
40.5 0 0
42 0 0
43.5 0 0
45 0 0
46.5 0 0
48 0 0
49.5 0 0
51 0 0
52.5 0 0
54 0 0
55.5 0 0
57 0 0
58.5 0 0
60 0 0
61.5 0 0
63 0 0
64.5 0 0
66 0 0
67.5 0 0
69 0 0
70.5 0 0
72 0 0
73.5 0 0
75 0 0
76.5 0 0
78 0 0
79.5 0 0
81 0 0
82.5 0 0
84 0 0
85.5 0 0
87 0 0
88.5 0 0
90 0 0
91.5 0 0
93 0 0
94.5 0 0
96 0 0
97.5 0 0
99 0 0
100.5 0 0
102 0 0
103.5 0 0
105 0 0
106.5 0 0
108 0 0
109.5 0 0
111 0 0
112.5 0 0
114 0 0
115.5 0 0
117 0 0
118.5 0 0
120 0 0
121.5 0 0
123 0 0
124.5 0 0
126 0 0
127.5 0 0
129 0 0
130.5 0 0
132 0 0
133.5 0 0
135 0 0
136.5 0 0
138 0 0
139.5 0 0
141 0 0
142.5 0 0
144 0 0
145.5 0 0
147 0 0
148.5 0 0
150 0 0
151.5 0 0
153 0 0
154.5 0 0
156 0 0
157.5 0 0
159 0 0
160.5 0 0
162 0 0
163.5 0 0
165 0 0
166.5 0 0
168 0 0
169.5 0 0
171 0 0
172.5 0 0
174 0 0
175.5 0 0
177 0 0
178.5 0 0
180 0 0
181.5 0 0
183 0 0
184.5 0 0
186 0 0
187.5 0 0
189 0 0
190.5 0 0
192 0 0
193.5 0 0
195 0 0
196.5 0 0
198 0 0
199.5 0 0
201 0 0
202.5 0 0
204 0 0
205.5 0 0
207 0 0
208.5 0 0
210 0 0
211.5 0 0
213 0 0
214.5 0 0
216 0 0
217.5 0 0
219 0 0
220.5 0 0
222 0 0
223.5 0 0
225 0 0
226.5 0 0
228 0 0
229.5 0 0
231 0 0
232.5 0 0
234 0 0
235.5 0 0
237 0 0
238.5 0 0
240 0 0
241.5 0 0
243 0 0
244.5 0 0
246 0 0
247.5 0 0
249 0 0
250.5 0 0
252 0 0
253.5 0 0
255 0 0
256.5 0 0
258 0 0
259.5 0 0
261 0 0
262.5 0 0
264 0 0
265.5 0 0
267 0 0
268.5 0 0
270 0 0
271.5 0 0
273 0 0
274.5 0 0
276 0 0
277.5 0 0
279 0 0
280.5 0 0
282 0 0
283.5 0 0
285 0 0
286.5 0 0
288 0 0
289.5 0 0
291 0 0
292.5 0 0
294 0 0
295.5 0 0
297 0 0
298.5 0 0
300 0 0
0 0.8 0
1.5 0.8 0
3 0.8 0
4.5 0.8 0
6 0.8 0
7.5 0.8 0
9 0.8 0
10.5 0.8 0
12 0.8 0
13.5 0.8 0
15 0.8 0
16.5 0.8 0
18 0.8 0
19.5 0.8 0
21 0.8 0
22.5 0.8 0
24 0.8 0
25.5 0.8 0
27 0.8 0
28.5 0.8 0
30 0.8 0
31.5 0.8 0
33 0.8 0
34.5 0.8 0
36 0.8 0
37.5 0.8 0
39 0.8 0
40.5 0.8 0
42 0.8 0
43.5 0.8 0
45 0.8 0
46.5 0.8 0
48 0.8 0
49.5 0.8 0
51 0.8 0
52.5 0.8 0
54 0.8 0
55.5 0.8 0
57 0.8 0
58.5 0.8 0
60 0.8 0
61.5 0.8 0
63 0.8 0
64.5 0.8 0
66 0.8 0
67.5 0.8 0
69 0.8 0
70.5 0.8 0
72 0.8 0
73.5 0.8 0
75 0.8 0
76.5 0.8 0
78 0.8 0
79.5 0.8 0
81 0.8 0
82.5 0.8 0
84 0.8 0
85.5 0.8 0
87 0.8 0
88.5 0.8 0
90 0.8 0
91.5 0.8 0
93 0.8 0
94.5 0.8 0
96 0.8 0
97.5 0.8 0
99 0.8 0
100.5 0.8 0
102 0.8 0
103.5 0.8 0
105 0.8 0
106.5 0.8 0
108 0.8 0
109.5 0.8 0
111 0.8 0
112.5 0.8 0
114 0.8 0
115.5 0.8 0
117 0.8 0
118.5 0.8 0
120 0.8 0
121.5 0.8 0
123 0.8 0
124.5 0.8 0
126 0.8 0
127.5 0.8 0
129 0.8 0
130.5 0.8 0
132 0.8 0
133.5 0.8 0
135 0.8 0
136.5 0.8 0
138 0.8 0
139.5 0.8 0
141 0.8 0
142.5 0.8 0
144 0.8 0
145.5 0.8 0
147 0.8 0
148.5 0.8 0
150 0.8 0
151.5 0.8 0
153 0.8 0
154.5 0.8 0
156 0.8 0
157.5 0.8 0
159 0.8 0
160.5 0.8 0
162 0.8 0
163.5 0.8 0
165 0.8 0
166.5 0.8 0
168 0.8 0
169.5 0.8 0
171 0.8 0
172.5 0.8 0
174 0.8 0
175.5 0.8 0
177 0.8 0
178.5 0.8 0
180 0.8 0
181.5 0.8 0
183 0.8 0
184.5 0.8 0
186 0.8 0
187.5 0.8 0
189 0.8 0
190.5 0.8 0
192 0.8 0
193.5 0.8 0
195 0.8 0
196.5 0.8 0
198 0.8 0
199.5 0.8 0
201 0.8 0
202.5 0.8 0
204 0.8 0
205.5 0.8 0
207 0.8 0
208.5 0.8 0
210 0.8 0
211.5 0.8 0
213 0.8 0
214.5 0.8 0
216 0.8 0
217.5 0.8 0
219 0.8 0
220.5 0.8 0
222 0.8 0
223.5 0.8 0
225 0.8 0
226.5 0.8 0
228 0.8 0
229.5 0.8 0
231 0.8 0
232.5 0.8 0
234 0.8 0
235.5 0.8 0
237 0.8 0
238.5 0.8 0
240 0.8 0
241.5 0.8 0
243 0.8 0
244.5 0.8 0
246 0.8 0
247.5 0.8 0
249 0.8 0
250.5 0.8 0
252 0.8 0
253.5 0.8 0
255 0.8 0
256.5 0.8 0
258 0.8 0
259.5 0.8 0
261 0.8 0
262.5 0.8 0
264 0.8 0
265.5 0.8 0
267 0.8 0
268.5 0.8 0
270 0.8 0
271.5 0.8 0
273 0.8 0
274.5 0.8 0
276 0.8 0
277.5 0.8 0
279 0.8 0
280.5 0.8 0
282 0.8 0
283.5 0.8 0
285 0.8 0
286.5 0.8 0
288 0.8 0
289.5 0.8 0
291 0.8 0
292.5 0.8 0
294 0.8 0
295.5 0.8 0
297 0.8 0
298.5 0.8 0
300 0.8 0
0 1.6 0
1.5 1.6 0
3 1.6 0
4.5 1.6 0
6 1.6 0
7.5 1.6 0
9 1.6 0
10.5 1.6 0
12 1.6 0
13.5 1.6 0
15 1.6 0
16.5 1.6 0
18 1.6 0
19.5 1.6 0
21 1.6 0
22.5 1.6 0
24 1.6 0
25.5 1.6 0
27 1.6 0
28.5 1.6 0
30 1.6 0
31.5 1.6 0
33 1.6 0
34.5 1.6 0
36 1.6 0
37.5 1.6 0
39 1.6 0
40.5 1.6 0
42 1.6 0
43.5 1.6 0
45 1.6 0
46.5 1.6 0
48 1.6 0
49.5 1.6 0
51 1.6 0
52.5 1.6 0
54 1.6 0
55.5 1.6 0
57 1.6 0
58.5 1.6 0
60 1.6 0
61.5 1.6 0
63 1.6 0
64.5 1.6 0
66 1.6 0
67.5 1.6 0
69 1.6 0
70.5 1.6 0
72 1.6 0
73.5 1.6 0
75 1.6 0
76.5 1.6 0
78 1.6 0
79.5 1.6 0
81 1.6 0
82.5 1.6 0
84 1.6 0
85.5 1.6 0
87 1.6 0
88.5 1.6 0
90 1.6 0
91.5 1.6 0
93 1.6 0
94.5 1.6 0
96 1.6 0
97.5 1.6 0
99 1.6 0
100.5 1.6 0
102 1.6 0
103.5 1.6 0
105 1.6 0
106.5 1.6 0
108 1.6 0
109.5 1.6 0
111 1.6 0
112.5 1.6 0
114 1.6 0
115.5 1.6 0
117 1.6 0
118.5 1.6 0
120 1.6 0
121.5 1.6 0
123 1.6 0
124.5 1.6 0
126 1.6 0
127.5 1.6 0
129 1.6 0
130.5 1.6 0
132 1.6 0
133.5 1.6 0
135 1.6 0
136.5 1.6 0
138 1.6 0
139.5 1.6 0
141 1.6 0
142.5 1.6 0
144 1.6 0
145.5 1.6 0
147 1.6 0
148.5 1.6 0
150 1.6 0
151.5 1.6 0
153 1.6 0
154.5 1.6 0
156 1.6 0
157.5 1.6 0
159 1.6 0
160.5 1.6 0
162 1.6 0
163.5 1.6 0
165 1.6 0
166.5 1.6 0
168 1.6 0
169.5 1.6 0
171 1.6 0
172.5 1.6 0
174 1.6 0
175.5 1.6 0
177 1.6 0
178.5 1.6 0
180 1.6 0
181.5 1.6 0
183 1.6 0
184.5 1.6 0
186 1.6 0
187.5 1.6 0
189 1.6 0
190.5 1.6 0
192 1.6 0
193.5 1.6 0
195 1.6 0
196.5 1.6 0
198 1.6 0
199.5 1.6 0
201 1.6 0
202.5 1.6 0
204 1.6 0
205.5 1.6 0
207 1.6 0
208.5 1.6 0
210 1.6 0
211.5 1.6 0
213 1.6 0
214.5 1.6 0
216 1.6 0
217.5 1.6 0
219 1.6 0
220.5 1.6 0
222 1.6 0
223.5 1.6 0
225 1.6 0
226.5 1.6 0
228 1.6 0
229.5 1.6 0
231 1.6 0
232.5 1.6 0
234 1.6 0
235.5 1.6 0
237 1.6 0
238.5 1.6 0
240 1.6 0
241.5 1.6 0
243 1.6 0
244.5 1.6 0
246 1.6 0
247.5 1.6 0
249 1.6 0
250.5 1.6 0
252 1.6 0
253.5 1.6 0
255 1.6 0
256.5 1.6 0
258 1.6 0
259.5 1.6 0
261 1.6 0
262.5 1.6 0
264 1.6 0
265.5 1.6 0
267 1.6 0
268.5 1.6 0
270 1.6 0
271.5 1.6 0
273 1.6 0
274.5 1.6 0
276 1.6 0
277.5 1.6 0
279 1.6 0
280.5 1.6 0
282 1.6 0
283.5 1.6 0
285 1.6 0
286.5 1.6 0
288 1.6 0
289.5 1.6 0
291 1.6 0
292.5 1.6 0
294 1.6 0
295.5 1.6 0
297 1.6 0
298.5 1.6 0
300 1.6 0
0 2.4 0
1.5 2.4 0
3 2.4 0
4.5 2.4 0
6 2.4 0
7.5 2.4 0
9 2.4 0
10.5 2.4 0
12 2.4 0
13.5 2.4 0
15 2.4 0
16.5 2.4 0
18 2.4 0
19.5 2.4 0
21 2.4 0
22.5 2.4 0
24 2.4 0
25.5 2.4 0
27 2.4 0
28.5 2.4 0
30 2.4 0
31.5 2.4 0
33 2.4 0
34.5 2.4 0
36 2.4 0
37.5 2.4 0
39 2.4 0
40.5 2.4 0
42 2.4 0
43.5 2.4 0
45 2.4 0
46.5 2.4 0
48 2.4 0
49.5 2.4 0
51 2.4 0
52.5 2.4 0
54 2.4 0
55.5 2.4 0
57 2.4 0
58.5 2.4 0
60 2.4 0
61.5 2.4 0
63 2.4 0
64.5 2.4 0
66 2.4 0
67.5 2.4 0
69 2.4 0
70.5 2.4 0
72 2.4 0
73.5 2.4 0
75 2.4 0
76.5 2.4 0
78 2.4 0
79.5 2.4 0
81 2.4 0
82.5 2.4 0
84 2.4 0
85.5 2.4 0
87 2.4 0
88.5 2.4 0
90 2.4 0
91.5 2.4 0
93 2.4 0
94.5 2.4 0
96 2.4 0
97.5 2.4 0
99 2.4 0
100.5 2.4 0
102 2.4 0
103.5 2.4 0
105 2.4 0
106.5 2.4 0
108 2.4 0
109.5 2.4 0
111 2.4 0
112.5 2.4 0
114 2.4 0
115.5 2.4 0
117 2.4 0
118.5 2.4 0
120 2.4 0
121.5 2.4 0
123 2.4 0
124.5 2.4 0
126 2.4 0
127.5 2.4 0
129 2.4 0
130.5 2.4 0
132 2.4 0
133.5 2.4 0
135 2.4 0
136.5 2.4 0
138 2.4 0
139.5 2.4 0
141 2.4 0
142.5 2.4 0
144 2.4 0
145.5 2.4 0
147 2.4 0
148.5 2.4 0
150 2.4 0
151.5 2.4 0
153 2.4 0
154.5 2.4 0
156 2.4 0
157.5 2.4 0
159 2.4 0
160.5 2.4 0
162 2.4 0
163.5 2.4 0
165 2.4 0
166.5 2.4 0
168 2.4 0
169.5 2.4 0
171 2.4 0
172.5 2.4 0
174 2.4 0
175.5 2.4 0
177 2.4 0
178.5 2.4 0
180 2.4 0
181.5 2.4 0
183 2.4 0
184.5 2.4 0
186 2.4 0
187.5 2.4 0
189 2.4 0
190.5 2.4 0
192 2.4 0
193.5 2.4 0
195 2.4 0
196.5 2.4 0
198 2.4 0
199.5 2.4 0
201 2.4 0
202.5 2.4 0
204 2.4 0
205.5 2.4 0
207 2.4 0
208.5 2.4 0
210 2.4 0
211.5 2.4 0
213 2.4 0
214.5 2.4 0
216 2.4 0
217.5 2.4 0
219 2.4 0
220.5 2.4 0
222 2.4 0
223.5 2.4 0
225 2.4 0
226.5 2.4 0
228 2.4 0
229.5 2.4 0
231 2.4 0
232.5 2.4 0
234 2.4 0
235.5 2.4 0
237 2.4 0
238.5 2.4 0
240 2.4 0
241.5 2.4 0
243 2.4 0
244.5 2.4 0
246 2.4 0
247.5 2.4 0
249 2.4 0
250.5 2.4 0
252 2.4 0
253.5 2.4 0
255 2.4 0
256.5 2.4 0
258 2.4 0
259.5 2.4 0
261 2.4 0
262.5 2.4 0
264 2.4 0
265.5 2.4 0
267 2.4 0
268.5 2.4 0
270 2.4 0
271.5 2.4 0
273 2.4 0
274.5 2.4 0
276 2.4 0
277.5 2.4 0
279 2.4 0
280.5 2.4 0
282 2.4 0
283.5 2.4 0
285 2.4 0
286.5 2.4 0
288 2.4 0
289.5 2.4 0
291 2.4 0
292.5 2.4 0
294 2.4 0
295.5 2.4 0
297 2.4 0
298.5 2.4 0
300 2.4 0
0 3.2 0
1.5 3.2 0
3 3.2 0
4.5 3.2 0
6 3.2 0
7.5 3.2 0
9 3.2 0
10.5 3.2 0
12 3.2 0
13.5 3.2 0
15 3.2 0
16.5 3.2 0
18 3.2 0
19.5 3.2 0
21 3.2 0
22.5 3.2 0
24 3.2 0
25.5 3.2 0
27 3.2 0
28.5 3.2 0
30 3.2 0
31.5 3.2 0
33 3.2 0
34.5 3.2 0
36 3.2 0
37.5 3.2 0
39 3.2 0
40.5 3.2 0
42 3.2 0
43.5 3.2 0
45 3.2 0
46.5 3.2 0
48 3.2 0
49.5 3.2 0
51 3.2 0
52.5 3.2 0
54 3.2 0
55.5 3.2 0
57 3.2 0
58.5 3.2 0
60 3.2 0
61.5 3.2 0
63 3.2 0
64.5 3.2 0
66 3.2 0
67.5 3.2 0
69 3.2 0
70.5 3.2 0
72 3.2 0
73.5 3.2 0
75 3.2 0
76.5 3.2 0
78 3.2 0
79.5 3.2 0
81 3.2 0
82.5 3.2 0
84 3.2 0
85.5 3.2 0
87 3.2 0
88.5 3.2 0
90 3.2 0
91.5 3.2 0
93 3.2 0
94.5 3.2 0
96 3.2 0
97.5 3.2 0
99 3.2 0
100.5 3.2 0
102 3.2 0
103.5 3.2 0
105 3.2 0
106.5 3.2 0
108 3.2 0
109.5 3.2 0
111 3.2 0
112.5 3.2 0
114 3.2 0
115.5 3.2 0
117 3.2 0
118.5 3.2 0
120 3.2 0
121.5 3.2 0
123 3.2 0
124.5 3.2 0
126 3.2 0
127.5 3.2 0
129 3.2 0
130.5 3.2 0
132 3.2 0
133.5 3.2 0
135 3.2 0
136.5 3.2 0
138 3.2 0
139.5 3.2 0
141 3.2 0
142.5 3.2 0
144 3.2 0
145.5 3.2 0
147 3.2 0
148.5 3.2 0
150 3.2 0
151.5 3.2 0
153 3.2 0
154.5 3.2 0
156 3.2 0
157.5 3.2 0
159 3.2 0
160.5 3.2 0
162 3.2 0
163.5 3.2 0
165 3.2 0
166.5 3.2 0
168 3.2 0
169.5 3.2 0
171 3.2 0
172.5 3.2 0
174 3.2 0
175.5 3.2 0
177 3.2 0
178.5 3.2 0
180 3.2 0
181.5 3.2 0
183 3.2 0
184.5 3.2 0
186 3.2 0
187.5 3.2 0
189 3.2 0
190.5 3.2 0
192 3.2 0
193.5 3.2 0
195 3.2 0
196.5 3.2 0
198 3.2 0
199.5 3.2 0
201 3.2 0
202.5 3.2 0
204 3.2 0
205.5 3.2 0
207 3.2 0
208.5 3.2 0
210 3.2 0
211.5 3.2 0
213 3.2 0
214.5 3.2 0
216 3.2 0
217.5 3.2 0
219 3.2 0
220.5 3.2 0
222 3.2 0
223.5 3.2 0
225 3.2 0
226.5 3.2 0
228 3.2 0
229.5 3.2 0
231 3.2 0
232.5 3.2 0
234 3.2 0
235.5 3.2 0
237 3.2 0
238.5 3.2 0
240 3.2 0
241.5 3.2 0
243 3.2 0
244.5 3.2 0
246 3.2 0
247.5 3.2 0
[...]
POINT_DATA 30351
VECTORS U double
0 0 0
-0.0245835346713 -0.0169841898125 0
-0.0436926937851 -0.0301272628952 0
-0.0602273805427 -0.0416954534923 0
-0.0753373725312 -0.0523582051073 0
-0.089520792217 -0.0624338162712 0
-0.103028744254 -0.0721015421182 0
-0.116007240923 -0.0814717560614 0
-0.128550964651 -0.0906173526982 0
-0.140726179197 -0.0995893115501 0
-0.152581787999 -0.108424940629 0
-0.164155295367 -0.117152525385 0
-0.17547631014 -0.12579411524 0
-0.186568752334 -0.134367283499 0
-0.197452309245 -0.142886290895 0
-0.208143440848 -0.151362884175 0
-0.218656090849 -0.159806861531 0
-0.229002208433 -0.168226483758 0
-0.2391921343 -0.17662877992 0
-0.249234897203 -0.185019779124 0
-0.25913844027 -0.193404688986 0
-0.268909801365 -0.201788035555 0
-0.278555253896 -0.210173773804 0
-0.288080422472 -0.218565376643 0
-0.297490374693 -0.226965906676 0
-0.306789698676 -0.235378075232 0
-0.315982565057 -0.243804290788 0
-0.325072781019 -0.252246699501 0
-0.334063833334 -0.260707218908 0
-0.342958927303 -0.269187566584 0
-0.351761017343 -0.277689284219 0
-0.360472835858 -0.286213758394 0
-0.369096915408 -0.294762238164 0
-0.377635610611 -0.30333585046 0
-0.386091114556 -0.311935613152 0
-0.394465475703 -0.320562446707 0
-0.402760610254 -0.329217184051 0
-0.410978315422 -0.337900579534 0
-0.419120278896 -0.346613316486 0
-0.427188089431 -0.355356014225 0
-0.435183244146 -0.364129233908 0
-0.443107157142 -0.372933484089 0
-0.45096116517 -0.381769225309 0
-0.458746534723 -0.390636874545 0
-0.466464466507 -0.399536808845 0
-0.474116101297 -0.408469368966 0
-0.481702523583 -0.417434862235 0
-0.489224766336 -0.426433565589 0
-0.496683814111 -0.435465727831 0
-0.504080606895 -0.444531572173 0
-0.511416042855 -0.453631298077 0
-0.518690981355 -0.462765083358 0
-0.525906245456 -0.471933085729 0
-0.533062624337 -0.481135444504 0
-0.54016087554 -0.490372281963 0
-0.547201726874 -0.499643704749 0
-0.554185878494 -0.508949805035 0
-0.561114004379 -0.518290661687 0
-0.567986754299 -0.527666341286 0
-0.57480475488 -0.53707689912 0
-0.581568611533 -0.546522380056 0
-0.588278909142 -0.556002819399 0
-0.59493621401 -0.565518243645 0
-0.601541074183 -0.575068671253 0
-0.608094021396 -0.584654113292 0
-0.614595571172 -0.594274574085 0
-0.621046224707 -0.603930051848 0
-0.627446468796 -0.613620539209 0
-0.633796777642 -0.623346023834 0
-0.640097612672 -0.633106488818 0
-0.64634942427 -0.64290191331 0
-0.652552651503 -0.652732272867 0
-0.658707723766 -0.662597540023 0
-0.664815060435 -0.672497684577 0
-0.670875072453 -0.682432674149 0
-0.67688816196 -0.692402474468 0
-0.682854723725 -0.702407049869 0
-0.688775144837 -0.712446363555 0
-0.694649805995 -0.722520378073 0
-0.700479081224 -0.732629055596 0
-0.706263339057 -0.742772358357 0
-0.712002942257 -0.752950248897 0
-0.717698248953 -0.763162690509 0
-0.723349612321 -0.773409647496 0
-0.728957381685 -0.783691085601 0
-0.734521902156 -0.79400697222 0
-0.74004351575 -0.804357276855 0
-0.745522560955 -0.814741971368 0
-0.750959373838 -0.825161030391 0
-0.756354287583 -0.835614431566 0
-0.761707633591 -0.84610215598 0
-0.767019740997 -0.856624188435 0
-0.772290937723 -0.867180517871 0
-0.777521550001 -0.877771137611 0
-0.782711903417 -0.888396045813 0
-0.787862322394 -0.899055245775 0
-0.792973131245 -0.909748746359 0
-0.79804465358 -0.920476562276 0
-0.803077213461 -0.931238714553 0
-0.808071134673 -0.94203523089 0
-0.81302674196 -0.952866146084 0
-0.817944360185 -0.963731502379 0
-0.82282431571 -0.97463134995 0
-0.827666935359 -0.985565747325 0
-0.832472547964 -0.996534761831 0
-0.837241483126 -1.00753847002 0
-0.841974072983 -1.01857695817 0
-0.846670650747 -1.02965032279 0
-0.851331552612 -1.04075867111 0
-0.855957116172 -1.05190212157 0
-0.860547682458 -1.06308080439 0
-0.865103594196 -1.07429486216 0
-0.869625197941 -1.08554445038 0
-0.874112842269 -1.09682973802 0
-0.878566879977 -1.10815090823 0
-0.882987666188 -1.11950815892 0
-0.887375560593 -1.13090170351 0
-0.891730925511 -1.14233177148 0
-0.896054128198 -1.15379860926 0
-0.900345538828 -1.1653024809 0
-0.904605532821 -1.17684366889 0
-0.908834488805 -1.18842247495 0
-0.91303279097 -1.20003922091 0
-0.917200827029 -1.21169424961 0
-0.921338990489 -1.22338792586 0
-0.9254476787 -1.23512063735 0
-0.929527295067 -1.24689279573 0
-0.933578247123 -1.25870483769 0
-0.937600948692 -1.27055722608 0
-0.941595817979 -1.28245045103 0
-0.94556327976 -1.29438503127 0
-0.949503763417 -1.30636151538 0
-0.953417705121 -1.31838048323 0
-0.957305545881 -1.33044254728 0
-0.961167733716 -1.34254835425 0
-0.965004721725 -1.35469858659 0
-0.968816970158 -1.36689396431 0
-0.972604944574 -1.37913524658 0
-0.976369117854 -1.39142323377 0
-0.980109968362 -1.40375876931 0
-0.983827981933 -1.41614274199 0
-0.987523650004 -1.42857608787 0
-0.991197471651 -1.44105979301 0
-0.994849951668 -1.45359489568 0
-0.998481602554 -1.46618248932 0
-1.00209294262 -1.47882372505 0
-1.00568449797 -1.49151981509 0
-1.00925680055 -1.50427203562 0
-1.01281039009 -1.51708173066 0
-1.01634581221 -1.52995031529 0
-1.01986362022 -1.54287928013 0
-1.02336437335 -1.55587019514 0
-1.02684863835 -1.56892471468 0
-1.03031698778 -1.5820445819 0
-1.03377000161 -1.59523163465 0
-1.03720826536 -1.60848781067 0
-1.04063237171 -1.62181515439 0
-1.04404291863 -1.63521582307 0
-1.04744051084 -1.64869209472 0
-1.050825758 -1.66224637559 0
-1.05419927597 -1.67588120938 0
-1.05756168504 -1.68959928625 0
-1.06091361101 -1.7034034538 0
-1.0642556834 -1.7172967281 0
-1.06758853638 -1.7312823068 0
-1.07091280684 -1.74536358269 0
-1.07422913524 -1.75954415964 0
-1.07753816353 -1.77382786948 0
-1.08084053571 -1.78821879162 0
-1.08413689572 -1.80272127423 0
-1.08742788761 -1.81733995883 0
-1.09071415333 -1.83207980727 0
-1.09399633242 -1.84694613304 0
-1.09727505958 -1.8619446361 0
-1.10055096383 -1.87708144358 0
-1.10382466568 -1.89236315565 0
-1.10709677555 -1.9077968994 0
-1.11036789041 -1.92339039061 0
-1.11363859106 -1.93915200692 0
-1.11690943796 -1.95509087304 0
-1.12018096679 -1.97121696288 0
-1.12345368285 -1.98754122074 0
-1.12672805397 -2.00407570863 0
-1.13000450227 -2.02083378487 0
-1.13328339251 -2.03783032516 0
-1.13656501872 -2.05508199741 0
-1.13984958379 -2.07260761006 0
-1.14313717509 -2.09042855831 0
-1.14642772544 -2.10856940747 0
-1.14972096143 -2.12705866898 0
-1.15301631777 -2.14592985761 0
-1.15631280716 -2.16522297006 0
-1.15960878817 -2.1849866167 0
-1.16290154742 -2.20528121388 0
-1.16618644477 -2.22618397263 0
-1.1694550159 -2.24779710235 0
-1.17269025401 -2.27026205159 0
-1.17585373323 -2.29378557112 0
-1.17884763883 -2.31868937679 0
-1.18139726672 -2.34550763572 0
-1.18268598528 -2.37520565407 0
0 0 0
-0.0134216806355 -0.0101524187735 0
-0.0291588778813 -0.022131504849 0
-0.0447193266999 -0.033657158262 0
-0.059604942966 -0.0445342468499 0
-0.0738024648488 -0.0548687119237 0
-0.0873965393261 -0.064783885862 0
-0.100476079367 -0.0743775758685 0
-0.113115546355 -0.0837223997413 0
-0.125374283594 -0.0928721803767 0
-0.137299359444 -0.101867468305 0
-0.148928446026 -0.110739449373 0
-0.160292091065 -0.119512591575 0
-0.171415401599 -0.128206441291 0
-0.182319279109 -0.136836861668 0
-0.193021328426 -0.145416904602 0
-0.203536536207 -0.153957437758 0
-0.213877782132 -0.162467604756 0
-0.22405623146 -0.170955169048 0
-0.234081638221 -0.179426775256 0
-0.243962584442 -0.187888150901 0
-0.253706668949 -0.196344263995 0
-0.263320659923 -0.204799448037 0
-0.272810617505 -0.213257501856 0
-0.282181995002 -0.221721770589 0
-0.291439721368 -0.230195211603 0
-0.300588270675 -0.238680448929 0
-0.309631719306 -0.247179818291 0
-0.318573795103 -0.25569540487 0
-0.327417918023 -0.264229074945 0
-0.336167235837 -0.272782502809 0
-0.344824653672 -0.281357193542 0
-0.353392860565 -0.289954502659 0
-0.36187435135 -0.298575652839 0
-0.370271446774 -0.30722174856 0
-0.378586310023 -0.31589378861 0
-0.386820962246 -0.324592677196 0
-0.394977295221 -0.333319233442 0
-0.403057083501 -0.34207419996 0
-0.411061994269 -0.350858250157 0
-0.418993597014 -0.35967199495 0
-0.426853371249 -0.368515988461 0
-0.434642714332 -0.377390733341 0
-0.44236294759 -0.386296685254 0
-0.450015322702 -0.395234257154 0
-0.457601026642 -0.404203822853 0
-0.465121186894 -0.413205720515 0
-0.472576875505 -0.422240255486 0
-0.4799691134 -0.431307703197 0
-0.487298873734 -0.440408311425 0
-0.494567085447 -0.449542302729 0
-0.50177463612 -0.458709876292 0
-0.50892237493 -0.467911209919 0
-0.516011115053 -0.477146461599 0
-0.523041636144 -0.486415771178 0
-0.530014686423 -0.495719261664 0
-0.536930984747 -0.505057040632 0
-0.543791222426 -0.514429201336 0
-0.550596064946 -0.523835823912 0
-0.5573461536 -0.533276976316 0
-0.564042106915 -0.542752715368 0
-0.570684522133 -0.552263087548 0
-0.577273976353 -0.561808129918 0
-0.583811027921 -0.571387870814 0
-0.590296217366 -0.581002330628 0
-0.596730068648 -0.590651522441 0
-0.603113089942 -0.600335452698 0
-0.609445774784 -0.610054121794 0
-0.615728602739 -0.619807524641 0
-0.621962040432 -0.629595651223 0
-0.628146542103 -0.639418487089 0
-0.634282550569 -0.649276013875 0
-0.640370497699 -0.659168209747 0
-0.646410805296 -0.669095049872 0
-0.652403885479 -0.679056506824 0
-0.658350141502 -0.689052551039 0
-0.66424996812 -0.699083151191 0
-0.670103752296 -0.709148274599 0
-0.675911873535 -0.719247887603 0
-0.681674704527 -0.729381955947 0
-0.687392611474 -0.739550445139 0
-0.693065954656 -0.74975332081 0
-0.69869508871 -0.759990549064 0
-0.704280363182 -0.770262096843 0
-0.709822122769 -0.780567932257 0
-0.715320707838 -0.790908024936 0
-0.72077645461 -0.801282346365 0
-0.726189695671 -0.811690870245 0
-0.731560760144 -0.822133572816 0
-0.736889974155 -0.832610433213 0
-0.742177660968 -0.843121433797 0
-0.747424141438 -0.853666560527 0
-0.752629734148 -0.864245803284 0
-0.757794755824 -0.874859156251 0
-0.762919521434 -0.885506618242 0
-0.768004344592 -0.89618819311 0
-0.773049537669 -0.906903890088 0
-0.778055412174 -0.917653724174 0
-0.783022278788 -0.928437716523 0
-0.787950447797 -0.939255894848 0
-0.792840229103 -0.950108293813 0
-0.797691932636 -0.960994955448 0
-0.802505868297 -0.971915929581 0
-0.807282346443 -0.982871274274 0
-0.812021677762 -0.993861056278 0
-0.816724173801 -1.00488535147 0
-0.821390146731 -1.01594424537 0
-0.826019909954 -1.02703783358 0
-0.830613777824 -1.03816622235 0
-0.835172066259 -1.04932952906 0
-0.839695092395 -1.06052788277 0
-0.844183175247 -1.07176142479 0
-0.84863663534 -1.08303030928 0
-0.853055795352 -1.09433470379 0
-0.857440979709 -1.10567478995 0
-0.86179251525 -1.11705076409 0
-0.866110730809 -1.12846283791 0
-0.870395957875 -1.13991123921 0
-0.874648530109 -1.15139621255 0
-0.878868784041 -1.16291802012 0
-0.883057058583 -1.17447694241 0
-0.887213695699 -1.18607327915 0
-0.891339039876 -1.19770735007 0
-0.895433438791 -1.20937949588 0
-0.899497242822 -1.22109007915 0
-0.903530805642 -1.23283948535 0
-0.907534483724 -1.24462812381 0
-0.911508636903 -1.25645642888 0
-0.915453627916 -1.26832486096 0
-0.919369822923 -1.2802339078 0
-0.923257590976 -1.29218408563 0
-0.927117304573 -1.30417594055 0
-0.930949339113 -1.31621004984 0
-0.934754073407 -1.32828702347 0
-0.938531889077 -1.34040750554 0
-0.942283171053 -1.35257217596 0
-0.946008306994 -1.3647817521 0
-0.949707687691 -1.3770369906 0
-0.953381706466 -1.38933868918 0
-0.957030759522 -1.4016876888 0
-0.960655245335 -1.41408487557 0
-0.964255564978 -1.4265311832 0
-0.967832121388 -1.43902759514 0
-0.971385319646 -1.45157514736 0
-0.97491556627 -1.46417493083 0
-0.978423269349 -1.47682809453 0
-0.981908837747 -1.48953584834 0
-0.985372681202 -1.50229946654 0
-0.988815209478 -1.51512029099 0
-0.992236832285 -1.52799973515 0
-0.995637958345 -1.54093928781 0
-0.999018995195 -1.55394051764 0
-1.00238034815 -1.56700507753 0
-1.00572241995 -1.58013470982 0
-1.0090456095 -1.5933312514 0
-1.01235031134 -1.60659663978 0
-1.01563691425 -1.61993291903 0
-1.01890580045 -1.63334224692 0
-1.02215734387 -1.64682690196 0
-1.02539190907 -1.66038929183 0
-1.02860984929 -1.67403196174 0
-1.0318115048 -1.68775760447 0
-1.03499720058 -1.70156907051 0
-1.03816724417 -1.71546938002 0
-1.04132192275 -1.72946173527 0
-1.04446150029 -1.74354953505 0
-1.04758621383 -1.75773639011 0
-1.05069626973 -1.77202614077 0
-1.05379183885 -1.78642287618 0
-1.05687305151 -1.80093095633 0
-1.05993999124 -1.81555503627 0
-1.06299268783 -1.83030009403 0
-1.06603110906 -1.8451714617 0
-1.06905515113 -1.86017486133 0
-1.07206462732 -1.87531644554 0
-1.07505925458 -1.89060284465 0
-1.07803863766 -1.9060412208 0
-1.0810022499 -1.92163933127 0
-1.08394941028 -1.93740560226 0
-1.08687925521 -1.95334921628 0
-1.08979070429 -1.96948021552 0
-1.09268241747 -1.9858096262 0
-1.09555274194 -2.00234960827 0
-1.0983996445 -2.01911363878 0
-1.10122062572 -2.03611673756 0
-1.1040126078 -2.05337574965 0
-1.10677178835 -2.07090970226 0
-1.10949344395 -2.08874026379 0
-1.11217166511 -2.1068923432 0
-1.11479898842 -2.12539488787 0
-1.11736587971 -2.14428196803 0
-1.11985998892 -2.16359428586 0
-1.12226505961 -2.18338133098 0
-1.12455930133 -2.20370454379 0
-1.12671295852 -2.22464208708 0
-1.12868477396 -2.24629619245 0
-1.13041745107 -2.26880450161 0
-1.13183454812 -2.2923567484 0
-1.13285131111 -2.31721441323 0
-1.13345087307 -2.34370871218 0
-1.13401847273 -2.37207011409 0
0 0 0
-0.0122557614776 -0.00845448672466 0
-0.0244637389984 -0.0179372175452 0
-0.0372642894651 -0.0280748532923 0
-0.0502986250983 -0.0382973520025 0
-0.0632771394222 -0.0483621704462 0
-0.0760512919105 -0.058200388251 0
-0.0885600199292 -0.0678126064156 0
-0.100786717391 -0.0772227889415 0
-0.112735430662 -0.0864600880458 0
-0.124418977861 -0.0955523206727 0
-0.135853260939 -0.104524013099 0
-0.147054622237 -0.113396147666 0
-0.15803867231 -0.122186483889 0
-0.1688198251 -0.130910025027 0
-0.179411169278 -0.139579474318 0
-0.189824495248 -0.148205632878 0
-0.200070388822 -0.156797730835 0
-0.210158348443 -0.165363697701 0
-0.220096904815 -0.173910381465 0
-0.229893733882 -0.182443726022 0
-0.239555758918 -0.190968915214 0
-0.2490892412 -0.199490490129 0
-0.258499859244 -0.208012445293 0
-0.267792777893 -0.216538307795 0
-0.276972708139 -0.225071202991 0
-0.286043959109 -0.233613909071 0
-0.295010483 -0.242168902941 0
-0.303875914258 -0.25073839873 0
-0.312643603503 -0.259324380574 0
-0.321316647291 -0.267928630324 0
-0.329897913944 -0.276552751402 0
-0.338390066383 -0.285198189159 0
-0.346795582004 -0.293866248601 0
-0.355116770408 -0.302558109557 0
-0.363355788858 -0.311274840034 0
-0.371514656173 -0.320017407726 0
-0.379595264905 -0.328786690294 0
-0.387599392357 -0.337583484152 0
-0.395528710252 -0.346408512468 0
-0.403384793563 -0.355262431987 0
-0.41116912828 -0.364145839381 0
-0.418883118564 -0.373059276573 0
-0.426528093028 -0.382003235781 0
-0.434105310585 -0.390978163766 0
-0.441615965579 -0.399984465926 0
-0.449061192618 -0.409022509674 0
-0.456442070815 -0.418092627762 0
-0.463759627765 -0.427195121017 0
-0.471014843106 -0.436330261119 0
-0.478208651839 -0.445498292793 0
-0.485341947318 -0.454699436105 0
-0.492415584021 -0.463933888276 0
-0.499430380114 -0.473201825637 0
-0.506387119782 -0.482503405101 0
-0.513286555409 -0.491838765806 0
-0.520129409565 -0.501208030371 0
-0.526916376889 -0.510611306288 0
-0.533648125777 -0.520048686989 0
-0.540325300037 -0.529520253017 0
-0.546948520299 -0.539026072949 0
-0.553518385492 -0.54856620443 0
-0.560035474046 -0.558140694944 0
-0.566500345198 -0.567749582721 0
-0.572913540014 -0.577392897401 0
-0.579275582565 -0.587070660851 0
-0.585586980805 -0.596782887745 0
-0.591848227615 -0.606529586256 0
-0.598059801567 -0.616310758615 0
-0.604222167862 -0.626126401707 0
-0.610335778991 -0.63597650759 0
-0.616401075599 -0.645861064013 0
-0.622418487043 -0.655780054898 0
-0.628388432175 -0.665733460837 0
-0.634311319846 -0.675721259505 0
-0.640187549603 -0.68574342613 0
-0.646017512137 -0.695799933868 0
-0.651801589918 -0.705890754279 0
-0.6575401576 -0.716015857648 0
-0.663233582591 -0.726175213434 0
-0.668882225416 -0.736368790588 0
-0.674486440239 -0.746596557988 0
-0.680046575188 -0.756858484748 0
-0.68556297285 -0.767154540608 0
-0.691035970536 -0.777484696264 0
-0.696465900754 -0.787848923761 0
-0.701853091442 -0.798247196801 0
-0.707197866407 -0.808679491125 0
-0.712500545527 -0.819145784827 0
-0.717761445169 -0.829646058758 0
-0.722980878366 -0.840180296825 0
-0.728159155198 -0.850748486376 0
-0.733296582959 -0.861350618536 0
-0.738393466502 -0.871986688591 0
-0.743450108395 -0.882656696344 0
-0.748466809257 -0.89336064647 0
-0.753443867867 -0.904098548913 0
-0.7583815815 -0.914870419267 0
-0.763280246015 -0.925676279169 0
-0.768140156177 -0.936516156682 0
-0.772961605707 -0.947390086717 0
-0.777744887619 -0.958298111462 0
-0.78249029423 -0.969240280797 0
-0.787198117502 -0.980216652726 0
-0.791868649009 -0.991227293849 0
-0.796502180292 -1.00227227982 0
-0.801099002791 -1.01335169583 0
-0.80565940821 -1.02446563709 0
-0.8101836884 -1.03561420935 0
-0.814672135737 -1.04679752945 0
-0.819125042978 -1.05801572581 0
-0.82354270363 -1.06926893904 0
-0.827925411782 -1.08055732254 0
-0.832273462467 -1.09188104302 0
-0.836587151476 -1.10324028127 0
-0.840866775713 -1.11463523263 0
-0.84511263298 -1.12606610785 0
-0.84932502232 -1.13753313366 0
-0.853504243777 -1.14903655359 0
-0.857650598747 -1.16057662866 0
-0.861764389694 -1.17215363827 0
-0.865845920485 -1.18376788091 0
-0.869895496106 -1.19541967516 0
-0.873913422943 -1.20710936046 0
-0.877900008496 -1.21883729819 0
-0.881855561636 -1.23060387252 0
-0.885780392293 -1.24240949159 0
-0.889674811679 -1.25425458844 0
-0.893539131958 -1.26613962231 0
-0.897373666427 -1.27806507965 0
-0.901178729159 -1.29003147556 0
-0.904954635165 -1.30203935493 0
-0.908701699975 -1.31408929396 0
-0.912420239775 -1.32618190148 0
-0.916110570947 -1.33831782065 0
-0.919773010132 -1.35049773038 0
-0.923407873753 -1.36272234722 0
-0.927015478006 -1.374992427 0
-0.930596138322 -1.38730876687 0
-0.934150169318 -1.39967220716 0
-0.937677884164 -1.41208363368 0
-0.941179594455 -1.42454397979 0
-0.944655609505 -1.43705422901 0
-0.948106236142 -1.44961541734 0
-0.951531777875 -1.46222863619 0
-0.95493253459 -1.47489503505 0
-0.958308801609 -1.48761582481 0
-0.96166086922 -1.50039228079 0
-0.964989021612 -1.51322574649 0
-0.968293536251 -1.52611763716 0
-0.971574682611 -1.53906944402 0
-0.974832721371 -1.55208273837 0
-0.978067902905 -1.56515917653 0
-0.981280466249 -1.57830050455 0
-0.984470637297 -1.59150856395 0
-0.987638627471 -1.60478529725 0
-0.990784631558 -1.61813275466 0
-0.993908825996 -1.6315531006 0
-0.99701136627 -1.64504862156 0
-1.00009238468 -1.6586217339 0
-1.00315198717 -1.6722749931 0
-1.00619025049 -1.68601110318 0
-1.00920721825 -1.69983292775 0
-1.01220289725 -1.71374350142 0
-1.01517725259 -1.72774604311 0
-1.01813020285 -1.74184397019 0
-1.02106161394 -1.75604091458 0
-1.0239712928 -1.77034074033 0
-1.02685897949 -1.78474756362 0
-1.0297243389 -1.79926577478 0
-1.03256695041 -1.81390006344 0
-1.03538629684 -1.82865544657 0
-1.03818175082 -1.84353730067 0
-1.0409525597 -1.85855139799 0
-1.04369782733 -1.8737039485 0
-1.04641649324 -1.88900164765 0
-1.04910730764 -1.90445173207 0
-1.05176880226 -1.92006204404 0
-1.05439925531 -1.93584110717 0
-1.05699664993 -1.95179821544 0
-1.05955862382 -1.96794353899 0
-1.06208240886 -1.98428825049 0
-1.06456475709 -2.00084467762 0
-1.06700185088 -2.01762648838 0
-1.06938919201 -2.03464891858 0
-1.07172146541 -2.0519290538 0
-1.07399237032 -2.06948618242 0
-1.07619441206 -2.08734224221 0
-1.07831864602 -2.10552239142 0
-1.08035436803 -2.12405574586 0
-1.08228875247 -2.14297633718 0
-1.08410646056 -2.16232436212 0
-1.08578929714 -2.18214779795 0
-1.08731612524 -2.20250442969 0
-1.08866355795 -2.22346418339 0
-1.0898086335 -2.24511116536 0
-1.09073610438 -2.26754337721 0
-1.09145539841 -2.29086433979 0
-1.09203399305 -2.31515229686 0
-1.09264071301 -2.34037958802 0
-1.09348926496 -2.36628671219 0
0 0 0
-0.010784607614 -0.00755716882032 0