# vtk DataFile Version 3.0
Generated by Topo_C++
ASCII
DATASET UNSTRUCTURED_GRID
POINTS 30351 double
0 0 0
1.5 0 0
3 0 0
4.5 0 0
6 0 0
7.5 0 0
9 0 0
10.5 0 0
12 0 0
13.5 0 0
15 0 0
16.5 0 0
18 0 0
19.5 0 0
21 0 0
22.5 0 0
24 0 0
25.5 0 0
27 0 0
28.5 0 0
30 0 0
31.5 0 0
33 0 0
34.5 0 0
36 0 0
37.5 0 0
39 0 0
40.5 0 0
42 0 0
43.5 0 0
45 0 0
46.5 0 0
48 0 0
49.5 0 0
51 0 0
52.5 0 0
54 0 0
55.5 0 0
57 0 0
58.5 0 0
60 0 0
61.5 0 0
63 0 0
64.5 0 0
66 0 0
67.5 0 0
69 0 0
70.5 0 0
72 0 0
73.5 0 0
75 0 0
76.5 0 0
78 0 0
79.5 0 0
81 0 0
82.5 0 0
84 0 0
85.5 0 0
87 0 0
88.5 0 0
90 0 0
91.5 0 0
93 0 0
94.5 0 0
96 0 0
97.5 0 0
99 0 0
100.5 0 0
102 0 0
103.5 0 0
105 0 0
106.5 0 0
108 0 0
109.5 0 0
111 0 0
112.5 0 0
114 0 0
115.5 0 0
117 0 0
118.5 0 0
120 0 0
121.5 0 0
123 0 0
124.5 0 0
126 0 0
127.5 0 0
129 0 0
130.5 0 0
132 0 0
133.5 0 0
135 0 0
136.5 0 0
138 0 0
139.5 0 0
141 0 0
142.5 0 0
144 0 0
145.5 0 0
147 0 0
148.5 0 0
150 0 0
151.5 0 0
153 0 0
154.5 0 0
156 0 0
157.5 0 0
159 0 0
160.5 0 0
162 0 0
163.5 0 0
165 0 0
166.5 0 0
168 0 0
169.5 0 0
171 0 0
172.5 0 0
174 0 0
175.5 0 0
177 0 0
178.5 0 0
180 0 0
181.5 0 0
183 0 0
184.5 0 0
186 0 0
187.5 0 0
189 0 0
190.5 0 0
192 0 0
193.5 0 0
195 0 0
196.5 0 0
198 0 0
199.5 0 0
201 0 0
202.5 0 0
204 0 0
205.5 0 0
207 0 0
208.5 0 0
210 0 0
211.5 0 0
213 0 0
214.5 0 0
216 0 0
217.5 0 0
219 0 0
220.5 0 0
222 0 0
223.5 0 0
225 0 0
226.5 0 0
228 0 0
229.5 0 0
231 0 0
232.5 0 0
234 0 0
235.5 0 0
237 0 0
238.5 0 0
240 0 0
241.5 0 0
243 0 0
244.5 0 0
246 0 0
247.5 0 0
249 0 0
250.5 0 0
252 0 0
253.5 0 0
255 0 0
256.5 0 0
258 0 0
259.5 0 0
261 0 0
262.5 0 0
264 0 0
265.5 0 0
267 0 0
268.5 0 0
270 0 0
271.5 0 0
273 0 0
274.5 0 0
276 0 0
277.5 0 0
279 0 0
280.5 0 0
282 0 0
283.5 0 0
285 0 0
286.5 0 0
288 0 0
289.5 0 0
291 0 0
292.5 0 0
294 0 0
295.5 0 0
297 0 0
298.5 0 0
300 0 0
0 0.8 0
1.5 0.8 0
3 0.8 0
4.5 0.8 0
6 0.8 0
7.5 0.8 0
9 0.8 0
10.5 0.8 0
12 0.8 0
13.5 0.8 0
15 0.8 0
16.5 0.8 0
18 0.8 0
19.5 0.8 0
21 0.8 0
22.5 0.8 0
24 0.8 0
25.5 0.8 0
27 0.8 0
28.5 0.8 0
30 0.8 0
31.5 0.8 0
33 0.8 0
34.5 0.8 0
36 0.8 0
37.5 0.8 0
39 0.8 0
40.5 0.8 0
42 0.8 0
43.5 0.8 0
45 0.8 0
46.5 0.8 0
48 0.8 0
49.5 0.8 0
51 0.8 0
52.5 0.8 0
54 0.8 0
55.5 0.8 0
57 0.8 0
58.5 0.8 0
60 0.8 0
61.5 0.8 0
63 0.8 0
64.5 0.8 0
66 0.8 0
67.5 0.8 0
69 0.8 0
70.5 0.8 0
72 0.8 0
73.5 0.8 0
75 0.8 0
76.5 0.8 0
78 0.8 0
79.5 0.8 0
81 0.8 0
82.5 0.8 0
84 0.8 0
85.5 0.8 0
87 0.8 0
88.5 0.8 0
90 0.8 0
91.5 0.8 0
93 0.8 0
94.5 0.8 0
96 0.8 0
97.5 0.8 0
99 0.8 0
100.5 0.8 0
102 0.8 0
103.5 0.8 0
105 0.8 0
106.5 0.8 0
108 0.8 0
109.5 0.8 0
111 0.8 0
112.5 0.8 0
114 0.8 0
115.5 0.8 0
117 0.8 0
118.5 0.8 0
120 0.8 0
121.5 0.8 0
123 0.8 0
124.5 0.8 0
126 0.8 0
127.5 0.8 0
129 0.8 0
130.5 0.8 0
132 0.8 0
133.5 0.8 0
135 0.8 0
136.5 0.8 0
138 0.8 0
139.5 0.8 0
141 0.8 0
142.5 0.8 0
144 0.8 0
145.5 0.8 0
147 0.8 0
148.5 0.8 0
150 0.8 0
151.5 0.8 0
153 0.8 0
154.5 0.8 0
156 0.8 0
157.5 0.8 0
159 0.8 0
160.5 0.8 0
162 0.8 0
163.5 0.8 0
165 0.8 0
166.5 0.8 0
168 0.8 0
169.5 0.8 0
171 0.8 0
172.5 0.8 0
174 0.8 0
175.5 0.8 0
177 0.8 0
178.5 0.8 0
180 0.8 0
181.5 0.8 0
183 0.8 0
184.5 0.8 0
186 0.8 0
187.5 0.8 0
189 0.8 0
190.5 0.8 0
192 0.8 0
193.5 0.8 0
195 0.8 0
196.5 0.8 0
198 0.8 0
199.5 0.8 0
201 0.8 0
202.5 0.8 0
204 0.8 0
205.5 0.8 0
207 0.8 0
208.5 0.8 0
210 0.8 0
211.5 0.8 0
213 0.8 0
214.5 0.8 0
216 0.8 0
217.5 0.8 0
219 0.8 0
220.5 0.8 0
222 0.8 0
223.5 0.8 0
225 0.8 0
226.5 0.8 0
228 0.8 0
229.5 0.8 0
231 0.8 0
232.5 0.8 0
234 0.8 0
235.5 0.8 0
237 0.8 0
238.5 0.8 0
240 0.8 0
241.5 0.8 0
243 0.8 0
244.5 0.8 0
246 0.8 0
247.5 0.8 0
249 0.8 0
250.5 0.8 0
252 0.8 0
253.5 0.8 0
255 0.8 0
256.5 0.8 0
258 0.8 0
259.5 0.8 0
261 0.8 0
262.5 0.8 0
264 0.8 0
265.5 0.8 0
267 0.8 0
268.5 0.8 0
270 0.8 0
271.5 0.8 0
273 0.8 0
274.5 0.8 0
276 0.8 0
277.5 0.8 0
279 0.8 0
280.5 0.8 0
282 0.8 0
283.5 0.8 0
285 0.8 0
286.5 0.8 0
288 0.8 0
289.5 0.8 0
291 0.8 0
292.5 0.8 0
294 0.8 0
295.5 0.8 0
297 0.8 0
298.5 0.8 0
300 0.8 0
0 1.6 0
1.5 1.6 0
3 1.6 0
4.5 1.6 0
6 1.6 0
7.5 1.6 0
9 1.6 0
10.5 1.6 0
12 1.6 0
13.5 1.6 0
15 1.6 0
16.5 1.6 0
18 1.6 0
19.5 1.6 0
21 1.6 0
22.5 1.6 0
24 1.6 0
25.5 1.6 0
27 1.6 0
28.5 1.6 0
30 1.6 0
31.5 1.6 0
33 1.6 0
34.5 1.6 0
36 1.6 0
37.5 1.6 0
39 1.6 0
40.5 1.6 0
42 1.6 0
43.5 1.6 0
45 1.6 0
46.5 1.6 0
48 1.6 0
49.5 1.6 0
51 1.6 0
52.5 1.6 0
54 1.6 0
55.5 1.6 0
57 1.6 0
58.5 1.6 0
60 1.6 0
61.5 1.6 0
63 1.6 0
64.5 1.6 0
66 1.6 0
67.5 1.6 0
69 1.6 0
70.5 1.6 0
72 1.6 0
73.5 1.6 0
75 1.6 0
76.5 1.6 0
78 1.6 0
79.5 1.6 0
81 1.6 0
82.5 1.6 0
84 1.6 0
85.5 1.6 0
87 1.6 0
88.5 1.6 0
90 1.6 0
91.5 1.6 0
93 1.6 0
94.5 1.6 0
96 1.6 0
97.5 1.6 0
99 1.6 0
100.5 1.6 0
102 1.6 0
103.5 1.6 0
105 1.6 0
106.5 1.6 0
108 1.6 0
109.5 1.6 0
111 1.6 0
112.5 1.6 0
114 1.6 0
115.5 1.6 0
117 1.6 0
118.5 1.6 0
120 1.6 0
121.5 1.6 0
123 1.6 0
124.5 1.6 0
126 1.6 0
127.5 1.6 0
129 1.6 0
130.5 1.6 0
132 1.6 0
133.5 1.6 0
135 1.6 0
136.5 1.6 0
138 1.6 0
139.5 1.6 0
141 1.6 0
142.5 1.6 0
144 1.6 0
145.5 1.6 0
147 1.6 0
148.5 1.6 0
150 1.6 0
151.5 1.6 0
153 1.6 0
154.5 1.6 0
156 1.6 0
157.5 1.6 0
159 1.6 0
160.5 1.6 0
162 1.6 0
163.5 1.6 0
165 1.6 0
166.5 1.6 0
168 1.6 0
169.5 1.6 0
171 1.6 0
172.5 1.6 0
174 1.6 0
175.5 1.6 0
177 1.6 0
178.5 1.6 0
180 1.6 0
181.5 1.6 0
183 1.6 0
184.5 1.6 0
186 1.6 0
187.5 1.6 0
189 1.6 0
190.5 1.6 0
192 1.6 0
193.5 1.6 0
195 1.6 0
196.5 1.6 0
198 1.6 0
199.5 1.6 0
201 1.6 0
202.5 1.6 0
204 1.6 0
205.5 1.6 0
207 1.6 0
208.5 1.6 0
210 1.6 0
211.5 1.6 0
213 1.6 0
214.5 1.6 0
216 1.6 0
217.5 1.6 0
219 1.6 0
220.5 1.6 0
222 1.6 0
223.5 1.6 0
225 1.6 0
226.5 1.6 0
228 1.6 0
229.5 1.6 0
231 1.6 0
232.5 1.6 0
234 1.6 0
235.5 1.6 0
237 1.6 0
238.5 1.6 0
240 1.6 0
241.5 1.6 0
243 1.6 0
244.5 1.6 0
246 1.6 0
247.5 1.6 0
249 1.6 0
250.5 1.6 0
252 1.6 0
253.5 1.6 0
255 1.6 0
256.5 1.6 0
258 1.6 0
259.5 1.6 0
261 1.6 0
262.5 1.6 0
264 1.6 0
265.5 1.6 0
267 1.6 0
268.5 1.6 0
270 1.6 0
271.5 1.6 0
273 1.6 0
274.5 1.6 0
276 1.6 0
277.5 1.6 0
279 1.6 0
280.5 1.6 0
282 1.6 0
283.5 1.6 0
285 1.6 0
286.5 1.6 0
288 1.6 0
289.5 1.6 0
291 1.6 0
292.5 1.6 0
294 1.6 0
295.5 1.6 0
297 1.6 0
298.5 1.6 0
300 1.6 0
0 2.4 0
1.5 2.4 0
3 2.4 0
4.5 2.4 0
6 2.4 0
7.5 2.4 0
9 2.4 0
10.5 2.4 0
12 2.4 0
13.5 2.4 0
15 2.4 0
16.5 2.4 0
18 2.4 0
19.5 2.4 0
21 2.4 0
22.5 2.4 0
24 2.4 0
25.5 2.4 0
27 2.4 0
28.5 2.4 0
30 2.4 0
31.5 2.4 0
33 2.4 0
34.5 2.4 0
36 2.4 0
37.5 2.4 0
39 2.4 0
40.5 2.4 0
42 2.4 0
43.5 2.4 0
45 2.4 0
46.5 2.4 0
48 2.4 0
49.5 2.4 0
51 2.4 0
52.5 2.4 0
54 2.4 0
55.5 2.4 0
57 2.4 0
58.5 2.4 0
60 2.4 0
61.5 2.4 0
63 2.4 0
64.5 2.4 0
66 2.4 0
67.5 2.4 0
69 2.4 0
70.5 2.4 0
72 2.4 0
73.5 2.4 0
75 2.4 0
76.5 2.4 0
78 2.4 0
79.5 2.4 0
81 2.4 0
82.5 2.4 0
84 2.4 0
85.5 2.4 0
87 2.4 0
88.5 2.4 0
90 2.4 0
91.5 2.4 0
93 2.4 0
94.5 2.4 0
96 2.4 0
97.5 2.4 0
99 2.4 0
100.5 2.4 0
102 2.4 0
103.5 2.4 0
105 2.4 0
106.5 2.4 0
108 2.4 0
109.5 2.4 0
111 2.4 0
112.5 2.4 0
114 2.4 0
115.5 2.4 0
117 2.4 0
118.5 2.4 0
120 2.4 0
121.5 2.4 0
123 2.4 0
124.5 2.4 0
126 2.4 0
127.5 2.4 0
129 2.4 0
130.5 2.4 0
132 2.4 0
133.5 2.4 0
135 2.4 0
136.5 2.4 0
138 2.4 0
139.5 2.4 0
141 2.4 0
142.5 2.4 0
144 2.4 0
145.5 2.4 0
147 2.4 0
148.5 2.4 0
150 2.4 0
151.5 2.4 0
153 2.4 0
154.5 2.4 0
156 2.4 0
157.5 2.4 0
159 2.4 0
160.5 2.4 0
162 2.4 0
163.5 2.4 0
165 2.4 0
166.5 2.4 0
168 2.4 0
169.5 2.4 0
171 2.4 0
172.5 2.4 0
174 2.4 0
175.5 2.4 0
177 2.4 0
178.5 2.4 0
180 2.4 0
181.5 2.4 0
183 2.4 0
184.5 2.4 0
186 2.4 0
187.5 2.4 0
189 2.4 0
190.5 2.4 0
192 2.4 0
193.5 2.4 0
195 2.4 0
196.5 2.4 0
198 2.4 0
199.5 2.4 0
201 2.4 0
202.5 2.4 0
204 2.4 0
205.5 2.4 0
207 2.4 0
208.5 2.4 0
210 2.4 0
211.5 2.4 0
213 2.4 0
214.5 2.4 0
216 2.4 0
217.5 2.4 0
219 2.4 0
220.5 2.4 0
222 2.4 0
223.5 2.4 0
225 2.4 0
226.5 2.4 0
228 2.4 0
229.5 2.4 0
231 2.4 0
232.5 2.4 0
234 2.4 0
235.5 2.4 0
237 2.4 0
238.5 2.4 0
240 2.4 0
241.5 2.4 0
243 2.4 0
244.5 2.4 0
246 2.4 0
247.5 2.4 0
249 2.4 0
250.5 2.4 0
252 2.4 0
253.5 2.4 0
255 2.4 0
256.5 2.4 0
258 2.4 0
259.5 2.4 0
261 2.4 0
262.5 2.4 0
264 2.4 0
265.5 2.4 0
267 2.4 0
268.5 2.4 0
270 2.4 0
271.5 2.4 0
273 2.4 0
274.5 2.4 0
276 2.4 0
277.5 2.4 0
279 2.4 0
280.5 2.4 0
282 2.4 0
283.5 2.4 0
285 2.4 0
286.5 2.4 0
288 2.4 0
289.5 2.4 0
291 2.4 0
292.5 2.4 0
294 2.4 0
295.5 2.4 0
297 2.4 0
298.5 2.4 0
300 2.4 0
0 3.2 0
1.5 3.2 0
3 3.2 0
4.5 3.2 0
6 3.2 0
7.5 3.2 0
9 3.2 0
10.5 3.2 0
12 3.2 0
13.5 3.2 0
15 3.2 0
16.5 3.2 0
18 3.2 0
19.5 3.2 0
21 3.2 0
22.5 3.2 0
24 3.2 0
25.5 3.2 0
27 3.2 0
28.5 3.2 0
30 3.2 0
31.5 3.2 0
33 3.2 0
34.5 3.2 0
36 3.2 0
37.5 3.2 0
39 3.2 0
40.5 3.2 0
42 3.2 0
43.5 3.2 0
45 3.2 0
46.5 3.2 0
48 3.2 0
49.5 3.2 0
51 3.2 0
52.5 3.2 0
54 3.2 0
55.5 3.2 0
57 3.2 0
58.5 3.2 0
60 3.2 0
61.5 3.2 0
63 3.2 0
64.5 3.2 0
66 3.2 0
67.5 3.2 0
69 3.2 0
70.5 3.2 0
72 3.2 0
73.5 3.2 0
75 3.2 0
76.5 3.2 0
78 3.2 0
79.5 3.2 0
81 3.2 0
82.5 3.2 0
84 3.2 0
85.5 3.2 0
87 3.2 0
88.5 3.2 0
90 3.2 0
91.5 3.2 0
93 3.2 0
94.5 3.2 0
96 3.2 0
97.5 3.2 0
99 3.2 0
100.5 3.2 0
102 3.2 0
103.5 3.2 0
105 3.2 0
106.5 3.2 0
108 3.2 0
109.5 3.2 0
111 3.2 0
112.5 3.2 0
114 3.2 0
115.5 3.2 0
117 3.2 0
118.5 3.2 0
120 3.2 0
121.5 3.2 0
123 3.2 0
124.5 3.2 0
126 3.2 0
127.5 3.2 0
129 3.2 0
130.5 3.2 0
132 3.2 0
133.5 3.2 0
135 3.2 0
136.5 3.2 0
138 3.2 0
139.5 3.2 0
141 3.2 0
142.5 3.2 0
144 3.2 0
145.5 3.2 0
147 3.2 0
148.5 3.2 0
150 3.2 0
151.5 3.2 0
153 3.2 0
154.5 3.2 0
156 3.2 0
157.5 3.2 0
159 3.2 0
160.5 3.2 0
162 3.2 0
163.5 3.2 0
165 3.2 0
166.5 3.2 0
168 3.2 0
169.5 3.2 0
171 3.2 0
172.5 3.2 0
174 3.2 0
175.5 3.2 0
177 3.2 0
178.5 3.2 0
180 3.2 0
181.5 3.2 0
183 3.2 0
184.5 3.2 0
186 3.2 0
187.5 3.2 0
189 3.2 0
190.5 3.2 0
192 3.2 0
193.5 3.2 0
195 3.2 0
196.5 3.2 0
198 3.2 0
199.5 3.2 0
201 3.2 0
202.5 3.2 0
204 3.2 0
205.5 3.2 0
207 3.2 0
208.5 3.2 0
210 3.2 0
211.5 3.2 0
213 3.2 0
214.5 3.2 0
216 3.2 0
217.5 3.2 0
219 3.2 0
220.5 3.2 0
222 3.2 0
223.5 3.2 0
225 3.2 0
226.5 3.2 0
228 3.2 0
229.5 3.2 0
231 3.2 0
232.5 3.2 0
234 3.2 0
235.5 3.2 0
237 3.2 0
238.5 3.2 0
240 3.2 0
241.5 3.2 0
243 3.2 0
244.5 3.2 0
246 3.2 0
247.5 3.2 0
[...]
POINT_DATA 30351
VECTORS Displacement double
0 0 0
-0.0245835 -0.0169842 0
-0.0436927 -0.0301273 0
-0.0602274 -0.0416955 0
-0.0753374 -0.0523582 0
-0.0895208 -0.0624338 0
-0.103029 -0.0721015 0
-0.116007 -0.0814718 0
-0.128551 -0.0906174 0
-0.140726 -0.0995893 0
-0.152582 -0.108425 0
-0.164155 -0.117153 0
-0.175476 -0.125794 0
-0.186569 -0.134367 0
-0.197452 -0.142886 0
-0.208143 -0.151363 0
-0.218656 -0.159807 0
-0.229002 -0.168226 0
-0.239192 -0.176629 0
-0.249235 -0.18502 0
-0.259138 -0.193405 0
-0.26891 -0.201788 0
-0.278555 -0.210174 0
-0.28808 -0.218565 0
-0.29749 -0.226966 0
-0.30679 -0.235378 0
-0.315983 -0.243804 0
-0.325073 -0.252247 0
-0.334064 -0.260707 0
-0.342959 -0.269188 0
-0.351761 -0.277689 0
-0.360473 -0.286214 0
-0.369097 -0.294762 0
-0.377636 -0.303336 0
-0.386091 -0.311936 0
-0.394465 -0.320562 0
-0.402761 -0.329217 0
-0.410978 -0.337901 0
-0.41912 -0.346613 0
-0.427188 -0.355356 0
-0.435183 -0.364129 0
-0.443107 -0.372933 0
-0.450961 -0.381769 0
-0.458747 -0.390637 0
-0.466464 -0.399537 0
-0.474116 -0.408469 0
-0.481703 -0.417435 0
-0.489225 -0.426434 0
-0.496684 -0.435466 0
-0.504081 -0.444532 0
-0.511416 -0.453631 0
-0.518691 -0.462765 0
-0.525906 -0.471933 0
-0.533063 -0.481135 0
-0.540161 -0.490372 0
-0.547202 -0.499644 0
-0.554186 -0.50895 0
-0.561114 -0.518291 0
-0.567987 -0.527666 0
-0.574805 -0.537077 0
-0.581569 -0.546522 0
-0.588279 -0.556003 0
-0.594936 -0.565518 0
-0.601541 -0.575069 0
-0.608094 -0.584654 0
-0.614596 -0.594275 0
-0.621046 -0.60393 0
-0.627446 -0.613621 0
-0.633797 -0.623346 0
-0.640098 -0.633106 0
-0.646349 -0.642902 0
-0.652553 -0.652732 0
-0.658708 -0.662598 0
-0.664815 -0.672498 0
-0.670875 -0.682433 0
-0.676888 -0.692402 0
-0.682855 -0.702407 0
-0.688775 -0.712446 0
-0.69465 -0.72252 0
-0.700479 -0.732629 0
-0.706263 -0.742772 0
-0.712003 -0.75295 0
-0.717698 -0.763163 0
-0.72335 -0.77341 0
-0.728957 -0.783691 0
-0.734522 -0.794007 0
-0.740044 -0.804357 0
-0.745523 -0.814742 0
-0.750959 -0.825161 0
-0.756354 -0.835614 0
-0.761708 -0.846102 0
-0.76702 -0.856624 0
-0.772291 -0.867181 0
-0.777522 -0.877771 0
-0.782712 -0.888396 0
-0.787862 -0.899055 0
-0.792973 -0.909749 0
-0.798045 -0.920477 0
-0.803077 -0.931239 0
-0.808071 -0.942035 0
-0.813027 -0.952866 0
-0.817944 -0.963732 0
-0.822824 -0.974631 0
-0.827667 -0.985566 0
-0.832473 -0.996535 0
-0.837241 -1.00754 0
-0.841974 -1.01858 0
-0.846671 -1.02965 0
-0.851332 -1.04076 0
-0.855957 -1.0519 0
-0.860548 -1.06308 0
-0.865104 -1.07429 0
-0.869625 -1.08554 0
-0.874113 -1.09683 0
-0.878567 -1.10815 0
-0.882988 -1.11951 0
-0.887376 -1.1309 0
-0.891731 -1.14233 0
-0.896054 -1.1538 0
-0.900346 -1.1653 0
-0.904606 -1.17684 0
-0.908834 -1.18842 0
-0.913033 -1.20004 0
-0.917201 -1.21169 0
-0.921339 -1.22339 0
-0.925448 -1.23512 0
-0.929527 -1.24689 0
-0.933578 -1.2587 0
-0.937601 -1.27056 0
-0.941596 -1.28245 0
-0.945563 -1.29439 0
-0.949504 -1.30636 0
-0.953418 -1.31838 0
-0.957306 -1.33044 0
-0.961168 -1.34255 0
-0.965005 -1.3547 0
-0.968817 -1.36689 0
-0.972605 -1.37914 0
-0.976369 -1.39142 0
-0.98011 -1.40376 0
-0.983828 -1.41614 0
-0.987524 -1.42858 0
-0.991197 -1.44106 0
-0.99485 -1.45359 0
-0.998482 -1.46618 0
-1.00209 -1.47882 0
-1.00568 -1.49152 0
-1.00926 -1.50427 0
-1.01281 -1.51708 0
-1.01635 -1.52995 0
-1.01986 -1.54288 0
-1.02336 -1.55587 0
-1.02685 -1.56892 0
-1.03032 -1.58204 0
-1.03377 -1.59523 0
-1.03721 -1.60849 0
-1.04063 -1.62182 0
-1.04404 -1.63522 0
-1.04744 -1.64869 0
-1.05083 -1.66225 0
-1.0542 -1.67588 0
-1.05756 -1.6896 0
-1.06091 -1.7034 0
-1.06426 -1.7173 0
-1.06759 -1.73128 0
-1.07091 -1.74536 0
-1.07423 -1.75954 0
-1.07754 -1.77383 0
-1.08084 -1.78822 0
-1.08414 -1.80272 0
-1.08743 -1.81734 0
-1.09071 -1.83208 0
-1.094 -1.84695 0
-1.09728 -1.86194 0
-1.10055 -1.87708 0
-1.10382 -1.89236 0
-1.1071 -1.9078 0
-1.11037 -1.92339 0
-1.11364 -1.93915 0
-1.11691 -1.95509 0
-1.12018 -1.97122 0
-1.12345 -1.98754 0
-1.12673 -2.00408 0
-1.13 -2.02083 0
-1.13328 -2.03783 0
-1.13657 -2.05508 0
-1.13985 -2.07261 0
-1.14314 -2.09043 0
-1.14643 -2.10857 0
-1.14972 -2.12706 0
-1.15302 -2.14593 0
-1.15631 -2.16522 0
-1.15961 -2.18499 0
-1.1629 -2.20528 0
-1.16619 -2.22618 0
-1.16946 -2.2478 0
-1.17269 -2.27026 0
-1.17585 -2.29379 0
-1.17885 -2.31869 0
-1.1814 -2.34551 0
-1.18269 -2.37521 0
0 0 0
-0.0134217 -0.0101524 0
-0.0291589 -0.0221315 0
-0.0447193 -0.0336572 0
-0.0596049 -0.0445342 0
-0.0738025 -0.0548687 0
-0.0873965 -0.0647839 0
-0.100476 -0.0743776 0
-0.113116 -0.0837224 0
-0.125374 -0.0928722 0
-0.137299 -0.101867 0
-0.148928 -0.110739 0
-0.160292 -0.119513 0
-0.171415 -0.128206 0
-0.182319 -0.136837 0
-0.193021 -0.145417 0
-0.203537 -0.153957 0
-0.213878 -0.162468 0
-0.224056 -0.170955 0
-0.234082 -0.179427 0
-0.243963 -0.187888 0
-0.253707 -0.196344 0
-0.263321 -0.204799 0
-0.272811 -0.213258 0
-0.282182 -0.221722 0
-0.29144 -0.230195 0
-0.300588 -0.23868 0
-0.309632 -0.24718 0
-0.318574 -0.255695 0
-0.327418 -0.264229 0
-0.336167 -0.272783 0
-0.344825 -0.281357 0
-0.353393 -0.289955 0
-0.361874 -0.298576 0
-0.370271 -0.307222 0
-0.378586 -0.315894 0
-0.386821 -0.324593 0
-0.394977 -0.333319 0
-0.403057 -0.342074 0
-0.411062 -0.350858 0
-0.418994 -0.359672 0
-0.426853 -0.368516 0
-0.434643 -0.377391 0
-0.442363 -0.386297 0
-0.450015 -0.395234 0
-0.457601 -0.404204 0
-0.465121 -0.413206 0
-0.472577 -0.42224 0
-0.479969 -0.431308 0
-0.487299 -0.440408 0
-0.494567 -0.449542 0
-0.501775 -0.45871 0
-0.508922 -0.467911 0
-0.516011 -0.477146 0
-0.523042 -0.486416 0
-0.530015 -0.495719 0
-0.536931 -0.505057 0
-0.543791 -0.514429 0
-0.550596 -0.523836 0
-0.557346 -0.533277 0
-0.564042 -0.542753 0
-0.570685 -0.552263 0
-0.577274 -0.561808 0
-0.583811 -0.571388 0
-0.590296 -0.581002 0
-0.59673 -0.590652 0
-0.603113 -0.600335 0
-0.609446 -0.610054 0
-0.615729 -0.619808 0
-0.621962 -0.629596 0
-0.628147 -0.639418 0
-0.634283 -0.649276 0
-0.64037 -0.659168 0
-0.646411 -0.669095 0
-0.652404 -0.679057 0
-0.65835 -0.689053 0
-0.66425 -0.699083 0
-0.670104 -0.709148 0
-0.675912 -0.719248 0
-0.681675 -0.729382 0
-0.687393 -0.73955 0
-0.693066 -0.749753 0
-0.698695 -0.759991 0
-0.70428 -0.770262 0
-0.709822 -0.780568 0
-0.715321 -0.790908 0
-0.720776 -0.801282 0
-0.72619 -0.811691 0
-0.731561 -0.822134 0
-0.73689 -0.83261 0
-0.742178 -0.843121 0
-0.747424 -0.853667 0
-0.75263 -0.864246 0
-0.757795 -0.874859 0
-0.76292 -0.885507 0
-0.768004 -0.896188 0
-0.77305 -0.906904 0
-0.778055 -0.917654 0
-0.783022 -0.928438 0
-0.78795 -0.939256 0
-0.79284 -0.950108 0
-0.797692 -0.960995 0
-0.802506 -0.971916 0
-0.807282 -0.982871 0
-0.812022 -0.993861 0
-0.816724 -1.00489 0
-0.82139 -1.01594 0
-0.82602 -1.02704 0
-0.830614 -1.03817 0
-0.835172 -1.04933 0
-0.839695 -1.06053 0
-0.844183 -1.07176 0
-0.848637 -1.08303 0
-0.853056 -1.09433 0
-0.857441 -1.10567 0
-0.861793 -1.11705 0
-0.866111 -1.12846 0
-0.870396 -1.13991 0
-0.874649 -1.1514 0
-0.878869 -1.16292 0
-0.883057 -1.17448 0
-0.887214 -1.18607 0
-0.891339 -1.19771 0
-0.895433 -1.20938 0
-0.899497 -1.22109 0
-0.903531 -1.23284 0
-0.907534 -1.24463 0
-0.911509 -1.25646 0
-0.915454 -1.26832 0
-0.91937 -1.28023 0
-0.923258 -1.29218 0
-0.927117 -1.30418 0
-0.930949 -1.31621 0
-0.934754 -1.32829 0
-0.938532 -1.34041 0
-0.942283 -1.35257 0
-0.946008 -1.36478 0
-0.949708 -1.37704 0
-0.953382 -1.38934 0
-0.957031 -1.40169 0
-0.960655 -1.41408 0
-0.964256 -1.42653 0
-0.967832 -1.43903 0
-0.971385 -1.45158 0
-0.974916 -1.46417 0
-0.978423 -1.47683 0
-0.981909 -1.48954 0
-0.985373 -1.5023 0
-0.988815 -1.51512 0
-0.992237 -1.528 0
-0.995638 -1.54094 0
-0.999019 -1.55394 0
-1.00238 -1.56701 0
-1.00572 -1.58013 0
-1.00905 -1.59333 0
-1.01235 -1.6066 0
-1.01564 -1.61993 0
-1.01891 -1.63334 0
-1.02216 -1.64683 0
-1.02539 -1.66039 0
-1.02861 -1.67403 0
-1.03181 -1.68776 0
-1.035 -1.70157 0
-1.03817 -1.71547 0
-1.04132 -1.72946 0
-1.04446 -1.74355 0
-1.04759 -1.75774 0
-1.0507 -1.77203 0
-1.05379 -1.78642 0
-1.05687 -1.80093 0
-1.05994 -1.81556 0
-1.06299 -1.8303 0
-1.06603 -1.84517 0
-1.06906 -1.86017 0
-1.07206 -1.87532 0
-1.07506 -1.8906 0
-1.07804 -1.90604 0
-1.081 -1.92164 0
-1.08395 -1.93741 0
-1.08688 -1.95335 0
-1.08979 -1.96948 0
-1.09268 -1.98581 0
-1.09555 -2.00235 0
-1.0984 -2.01911 0
-1.10122 -2.03612 0
-1.10401 -2.05338 0
-1.10677 -2.07091 0
-1.10949 -2.08874 0
-1.11217 -2.10689 0
-1.1148 -2.12539 0
-1.11737 -2.14428 0
-1.11986 -2.16359 0
-1.12227 -2.18338 0
-1.12456 -2.2037 0
-1.12671 -2.22464 0
-1.12868 -2.2463 0
-1.13042 -2.2688 0
-1.13183 -2.29236 0
-1.13285 -2.31721 0
-1.13345 -2.34371 0
-1.13402 -2.37207 0
0 0 0
-0.0122558 -0.00845449 0
-0.0244637 -0.0179372 0
-0.0372643 -0.0280749 0
-0.0502986 -0.0382974 0
-0.0632771 -0.0483622 0
-0.0760513 -0.0582004 0
-0.08856 -0.0678126 0
-0.100787 -0.0772228 0
-0.112735 -0.0864601 0
-0.124419 -0.0955523 0
-0.135853 -0.104524 0
-0.147055 -0.113396 0
-0.158039 -0.122186 0
-0.16882 -0.13091 0
-0.179411 -0.139579 0
-0.189824 -0.148206 0
-0.20007 -0.156798 0
-0.210158 -0.165364 0
-0.220097 -0.17391 0
-0.229894 -0.182444 0
-0.239556 -0.190969 0
-0.249089 -0.19949 0
-0.2585 -0.208012 0
-0.267793 -0.216538 0
-0.276973 -0.225071 0
-0.286044 -0.233614 0
-0.29501 -0.242169 0
-0.303876 -0.250738 0
-0.312644 -0.259324 0
-0.321317 -0.267929 0
-0.329898 -0.276553 0
-0.33839 -0.285198 0
-0.346796 -0.293866 0
-0.355117 -0.302558 0
-0.363356 -0.311275 0
-0.371515 -0.320017 0
-0.379595 -0.328787 0
-0.387599 -0.337583 0
-0.395529 -0.346409 0
-0.403385 -0.355262 0
-0.411169 -0.364146 0
-0.418883 -0.373059 0
-0.426528 -0.382003 0
-0.434105 -0.390978 0
-0.441616 -0.399984 0
-0.449061 -0.409023 0
-0.456442 -0.418093 0
-0.46376 -0.427195 0
-0.471015 -0.43633 0
-0.478209 -0.445498 0
-0.485342 -0.454699 0
-0.492416 -0.463934 0
-0.49943 -0.473202 0
-0.506387 -0.482503 0
-0.513287 -0.491839 0
-0.520129 -0.501208 0
-0.526916 -0.510611 0
-0.533648 -0.520049 0
-0.540325 -0.52952 0
-0.546949 -0.539026 0
-0.553518 -0.548566 0
-0.560035 -0.558141 0
-0.5665 -0.56775 0
-0.572914 -0.577393 0
-0.579276 -0.587071 0
-0.585587 -0.596783 0
-0.591848 -0.60653 0
-0.59806 -0.616311 0
-0.604222 -0.626126 0
-0.610336 -0.635977 0
-0.616401 -0.645861 0
-0.622418 -0.65578 0
-0.628388 -0.665733 0
-0.634311 -0.675721 0
-0.640188 -0.685743 0
-0.646018 -0.6958 0
-0.651802 -0.705891 0
-0.65754 -0.716016 0
-0.663234 -0.726175 0
-0.668882 -0.736369 0
-0.674486 -0.746597 0
-0.680047 -0.756858 0
-0.685563 -0.767155 0
-0.691036 -0.777485 0
-0.696466 -0.787849 0
-0.701853 -0.798247 0
-0.707198 -0.808679 0
-0.712501 -0.819146 0
-0.717761 -0.829646 0
-0.722981 -0.84018 0
-0.728159 -0.850748 0
-0.733297 -0.861351 0
-0.738393 -0.871987 0
-0.74345 -0.882657 0
-0.748467 -0.893361 0
-0.753444 -0.904099 0
-0.758382 -0.91487 0
-0.76328 -0.925676 0
-0.76814 -0.936516 0
-0.772962 -0.94739 0
-0.777745 -0.958298 0
-0.78249 -0.96924 0
-0.787198 -0.980217 0
-0.791869 -0.991227 0
-0.796502 -1.00227 0
-0.801099 -1.01335 0
-0.805659 -1.02447 0
-0.810184 -1.03561 0
-0.814672 -1.0468 0
-0.819125 -1.05802 0
-0.823543 -1.06927 0
-0.827925 -1.08056 0
-0.832273 -1.09188 0
-0.836587 -1.10324 0
-0.840867 -1.11464 0
-0.845113 -1.12607 0
-0.849325 -1.13753 0
-0.853504 -1.14904 0
-0.857651 -1.16058 0
-0.861764 -1.17215 0
-0.865846 -1.18377 0
-0.869895 -1.19542 0
-0.873913 -1.20711 0
-0.8779 -1.21884 0
-0.881856 -1.2306 0
-0.88578 -1.24241 0
-0.889675 -1.25425 0
-0.893539 -1.26614 0
-0.897374 -1.27807 0
-0.901179 -1.29003 0
-0.904955 -1.30204 0
-0.908702 -1.31409 0
-0.91242 -1.32618 0
-0.916111 -1.33832 0
-0.919773 -1.3505 0
-0.923408 -1.36272 0
-0.927015 -1.37499 0
-0.930596 -1.38731 0
-0.93415 -1.39967 0
-0.937678 -1.41208 0
-0.94118 -1.42454 0
-0.944656 -1.43705 0
-0.948106 -1.44962 0
-0.951532 -1.46223 0
-0.954933 -1.4749 0
-0.958309 -1.48762 0
-0.961661 -1.50039 0
-0.964989 -1.51323 0
-0.968294 -1.52612 0
-0.971575 -1.53907 0
-0.974833 -1.55208 0
-0.978068 -1.56516 0
-0.98128 -1.5783 0
-0.984471 -1.59151 0
-0.987639 -1.60479 0
-0.990785 -1.61813 0
-0.993909 -1.63155 0
-0.997011 -1.64505 0
-1.00009 -1.65862 0
-1.00315 -1.67227 0
-1.00619 -1.68601 0
-1.00921 -1.69983 0
-1.0122 -1.71374 0
-1.01518 -1.72775 0
-1.01813 -1.74184 0
-1.02106 -1.75604 0
-1.02397 -1.77034 0
-1.02686 -1.78475 0
-1.02972 -1.79927 0
-1.03257 -1.8139 0
-1.03539 -1.82866 0
-1.03818 -1.84354 0
-1.04095 -1.85855 0
-1.0437 -1.8737 0
-1.04642 -1.889 0
-1.04911 -1.90445 0
-1.05177 -1.92006 0
-1.0544 -1.93584 0
-1.057 -1.9518 0
-1.05956 -1.96794 0
-1.06208 -1.98429 0
-1.06456 -2.00084 0
-1.067 -2.01763 0
-1.06939 -2.03465 0
-1.07172 -2.05193 0
-1.07399 -2.06949 0
-1.07619 -2.08734 0
-1.07832 -2.10552 0
-1.08035 -2.12406 0
-1.08229 -2.14298 0
-1.08411 -2.16232 0
-1.08579 -2.18215 0
-1.08732 -2.2025 0
-1.08866 -2.22346 0
-1.08981 -2.24511 0
-1.09074 -2.26754 0
-1.09146 -2.29086 0
-1.09203 -2.31515 0
-1.09264 -2.34038 0
-1.09349 -2.36629 0
0 0 0
-0.0107846 -0.00755717 0
-0.0219362 -0.0159166 0
-0.0332451 -0.0248207 0
-0.0447587 -0.0340769 0
-0.0564063 -0.0434834 0
-0.0680856 -0.0529042 0
-0.0797122 -0.062266 0
-0.0912289 -0.0715363 0
-0.102601 -0.0807057 0
-0.113811 -0.0897768 0
-0.12485 -0.0987578 0
-0.135716 -0.107659 0
-0.146411 -0.116491 0
-0.15694 -0.125264 0
-0.167308 -0.133988 0
-0.177521 -0.142671 0
-0.187585 -0.151322 0
-0.197505 -0.159947 0
-0.207289 -0.168553 0
-0.216941 -0.177145 0
-0.226466 -0.185728 0
-0.23587 -0.194307 0
-0.245157 -0.202884 0
-0.254331 -0.211465 0
-0.263397 -0.220051 0
-0.272357 -0.228646 0
-0.281216 -0.237252 0
-0.289977 -0.245871 0
-0.298642 -0.254505 0
-0.307215 -0.263157 0
-0.315698 -0.271828 0
-0.324093 -0.280519 0
-0.332404 -0.289231 0
-0.340631 -0.297967 0
-0.348777 -0.306726 0
-0.356845 -0.315511 0
-0.364835 -0.324321 0
-0.37275 -0.333158 0
-0.38059 -0.342023 0
-0.388359 -0.350916 0
-0.396056 -0.359837 0
-0.403684 -0.368789 0
-0.411243 -0.377769 0
-0.418735 -0.386781 0
-0.426162 -0.395823 0
-0.433523 -0.404896 0
-0.440821 -0.414001 0
-0.448056 -0.423138 0
-0.455229 -0.432307 0
-0.462341 -0.441508 0
-0.469393 -0.450743 0
-0.476386 -0.46001 0
-0.48332 -0.46931 0
-0.490197 -0.478643 0
-0.497017 -0.48801 0
-0.503781 -0.49741 0
-0.510489 -0.506844 0
-0.517142 -0.516312 0
-0.523741 -0.525813 0
-0.530287 -0.535349 0
-0.53678 -0.544918 0
-0.54322 -0.554522 0
-0.549608 -0.564159 0
-0.555945 -0.573831 0
-0.562231 -0.583537 0
-0.568467 -0.593277 0
-0.574653 -0.603052 0
-0.580789 -0.612861 0
-0.586877 -0.622703 0
-0.592916 -0.632581 0
-0.598907 -0.642492 0
-0.604851 -0.652437 0
-0.610747 -0.662417 0
-0.616596 -0.672431 0
-0.622399 -0.682479 0
-0.628156 -0.692561 0
-0.633868 -0.702678 0
-0.639534 -0.712828 0
-0.645155 -0.723013 0
-0.650731 -0.733231 0
-0.656264 -0.743484 0
-0.661752 -0.75377 0
-0.667197 -0.764091 0
-0.672598 -0.774445 0
-0.677957 -0.784833 0
-0.683273 -0.795255 0
-0.688547 -0.805711 0
-0.693778 -0.816201 0
-0.698968 -0.826725 0
-0.704117 -0.837282 0
-0.709225 -0.847873 0
-0.714291 -0.858498 0
-0.719318 -0.869157 0
-0.724304 -0.87985 0
-0.72925 -0.890576 0
-0.734156 -0.901336 0
-0.739023 -0.91213 0
-0.743852 -0.922958 0
-0.748641 -0.933819 0
-0.753392 -0.944715 0
-0.758104 -0.955644 0
-0.762779 -0.966608 0
-0.767415 -0.977605 0
-0.772015 -0.988637 0
-0.776577 -0.999702 0
-0.781102 -1.0108 0
-0.785591 -1.02194 0
-0.790043 -1.03311 0
-0.79446 -1.04431 0
-0.79884 -1.05555 0
-0.803185 -1.06682 0
-0.807494 -1.07813 0
-0.811769 -1.08947 0
-0.816009 -1.10085 0
-0.820214 -1.11226 0
-0.824385 -1.12371 0
-0.828522 -1.1352 0
-0.832626 -1.14672 0
-0.836696 -1.15828 0
-0.840732 -1.16988 0
-0.844736 -1.18151 0
-0.848708 -1.19318 0
-0.852647 -1.20489 0
-0.856554 -1.21663 0
-0.860429 -1.22842 0
-0.864272 -1.24024 0
-0.868084 -1.2521 0
-0.871865 -1.26401 0
-0.875616 -1.27595 0
-0.879335 -1.28793 0
-0.883025 -1.29996 0
-0.886685 -1.31202 0
-0.890314 -1.32413 0
-0.893915 -1.33628 0
-0.897486 -1.34848 0
-0.901028 -1.36072 0
-0.904541 -1.37301 0
-0.908026 -1.38534 0
-0.911482 -1.39772 0
-0.914911 -1.41014 0
-0.918311 -1.42262 0
-0.921684 -1.43514 0
-0.92503 -1.44772 0
-0.928348 -1.46035 0
-0.93164 -1.47303 0
-0.934904 -1.48576 0
-0.938142 -1.49855 0
-0.941354 -1.5114 0
-0.944539 -1.52431 0
-0.947698 -1.53727 0
-0.950831 -1.5503 0
-0.953938 -1.56339 0
-0.957019 -1.57655 0
-0.960075 -1.58977 0
-0.963105 -1.60306 0
-0.966109 -1.61642 0
-0.969087 -1.62985 0
-0.972039 -1.64336 0
-0.974966 -1.65695 0
-0.977867 -1.67061 0
-0.980741 -1.68436 0
-0.98359 -1.6982 0
-0.986411 -1.71212 0
-0.989206 -1.72614 0
-0.991973 -1.74025 0
-0.994713 -1.75446 0
-0.997425 -1.76877 0
-1.00011 -1.78319 0
-1.00276 -1.79772 0
-1.00538 -1.81237 0
-1.00797 -1.82714 0
-1.01053 -1.84204 0
-1.01306 -1.85707 0
-1.01555 -1.87224 0
-1.018 -1.88755 0
-1.02042 -1.90302 0
-1.02279 -1.91864 0
-1.02512 -1.93444 0
-1.0274 -1.95042 0
-1.02964 -1.96658 0
-1.03182 -1.98295 0
-1.03395 -1.99953 0
-1.03601 -2.01633 0
-1.03801 -2.03338 0
-1.03994 -2.05068 0
-1.04179 -2.06827 0
-1.04355 -2.08615 0
-1.04521 -2.10435 0
-1.04678 -2.12291 0
-1.04822 -2.14185 0
-1.04954 -2.1612 0
-1.05073 -2.18102 0
-1.05177 -2.20133 0
-1.05267 -2.2222 0
-1.05344 -2.24368 0
-1.05408 -2.26579 0
-1.05467 -2.28856 0
-1.05527 -2.31196 0
-1.05597 -2.33589 0
-1.05684 -2.36016 0
0 0 0
-0.00999802 -0.00698358 0
-0.0201235 -0.0145923 0
-0.0304602 -0.0227154 0
-0.040958 -0.0312093 0
-0.0515858 -0.0399553 0
-0.0623019 -0.0488508 0
-0.073057 -0.0578174 0
-0.0838043 -0.0668015 0
-0.0945054 -0.0757704 0
-0.105131 -0.0847058 0
-0.115662 -0.0935992 0
-0.126083 -0.102448 0
-0.136387 -0.111255 0
-0.146568 -0.120021 0
-0.156625 -0.128753 0
-0.166558 -0.137455 0
-0.176367 -0.146132 0
-0.186055 -0.154789 0
-0.195624 -0.16343 0
-0.205077 -0.17206 0
-0.214417 -0.180684 0
-0.223646 -0.189304 0
-0.232768 -0.197924 0
-0.241786 -0.206548 0
-0.250702 -0.215177 0
-0.25952 -0.223815 0
-0.268242 -0.232464 0
-0.276871 -0.241126 0
-0.285408 -0.249803 0
-0.293858 -0.258497 0
-0.30222 -0.267209 0
-0.310499 -0.275941 0
-0.318695 -0.284695 0
-0.326811 -0.29347 0
-0.334849 -0.302269 0
-0.342809 -0.311092 0
-0.350694 -0.319941 0
-0.358506 -0.328816 0
-0.366245 -0.337718 0
-0.373913 -0.346647 0
-0.381512 -0.355605 0
-0.389043 -0.364592 0
-0.396506 -0.373608 0
-0.403904 -0.382655 0
-0.411236 -0.391731 0
-0.418505 -0.400838 0
-0.425711 -0.409977 0
-0.432855 -0.419147 0
-0.439938 -0.428348 0
-0.446962 -0.437582 0
-0.453925 -0.446848 0
-0.460831 -0.456147 0
-0.467678 -0.465478 0
-0.474469 -0.474842 0
-0.481204 -0.48424 0
-0.487883 -0.49367 0
-0.494507 -0.503134 0
-0.501076 -0.512631 0
-0.507593 -0.522162 0
-0.514056 -0.531727 0
-0.520466 -0.541325 0
-0.526825 -0.550957 0
-0.533132 -0.560623 0
-0.539389 -0.570323 0
-0.545595 -0.580057 0
-0.551751 -0.589824 0
-0.557858 -0.599626 0
-0.563915 -0.609462 0
-0.569925 -0.619332 0
-0.575886 -0.629235 0
-0.581799 -0.639173 0
-0.587665 -0.649145 0
-0.593485 -0.659151 0
-0.599257 -0.66919 0
-0.604984 -0.679264 0
-0.610665 -0.689372 0
-0.616301 -0.699513 0
-0.621891 -0.709689 0
-0.627437 -0.719898 0
-0.632938 -0.730141 0
-0.638396 -0.740418 0
-0.64381 -0.750729 0
-0.64918 -0.761074 0
-0.654508 -0.771452 0
-0.659792 -0.781864 0
-0.665035 -0.79231 0
-0.670235 -0.802789 0
-0.675393 -0.813303 0
-0.68051 -0.823849 0
-0.685585 -0.83443 0
-0.69062 -0.845044 0
-0.695614 -0.855692 0
-0.700567 -0.866373 0
-0.70548 -0.877088 0
-0.710353 -0.887837 0
-0.715187 -0.898619 0
-0.719981 -0.909435 0
-0.724737 -0.920285 0
-0.729453 -0.931168 0
-0.734131 -0.942085 0
-0.73877 -0.953036 0
-0.743372 -0.964021 0
-0.747935 -0.975039 0
-0.752461 -0.986092 0
-0.75695 -0.997179 0
-0.761402 -1.0083 0
-0.765816 -1.01945 0
-0.770195 -1.03064 0
-0.774536 -1.04187 0
-0.778842 -1.05313 0
-0.783112 -1.06442 0
-0.787346 -1.07575 0
-0.791545 -1.08711 0
-0.795709 -1.09851 0
-0.799838 -1.10994 0
-0.803932 -1.12141 0
-0.807991 -1.13292 0
-0.812017 -1.14446 0
-0.816008 -1.15604 0
-0.819966 -1.16765 0
-0.82389 -1.1793 0
-0.827781 -1.19099 0
-0.831639 -1.20272 0
-0.835464 -1.21448 0
-0.839257 -1.22628 0
-0.843017 -1.23812 0
-0.846744 -1.25 0
-0.85044 -1.26192 0
-0.854104 -1.27388 0
-0.857737 -1.28589 0
-0.861338 -1.29793 0
-0.864908 -1.31001 0
-0.868447 -1.32214 0
-0.871955 -1.33431 0
-0.875433 -1.34652 0
-0.87888 -1.35878 0
-0.882297 -1.37108 0